! Touchstone file exported from HFSS 2023.2.0
!        File:           C:/Users/aleja/Downloads/Antena 40GHz_3S_3_Mejora_1.4/Antena 40GHz_3S_3_Mejora_1.4.aedt
!        Generated:      6:50:38 p. m.  jun. 24, 2024
!        Design:         HFSSDesign1
!        Project:        Antena 40GHz_3S_3_Mejora_1.4
!        Setup:          Auto1
!        Solution:       Sweep
!
! Variables:
!        Espesor = 0.22mm
!        L = 31.835mm
!        LLT = 8.1mm
!        LLT1 = 2.5mm
!        LLT2 = 2.5mm
!        LP1 = 2.1mm
!        LP2 = 2.1mm
!        LP3 = 2.1mm
!        LTR = 8.117mm
!        Lg = 28.787mm
!        TRL = 1.27mm
!        TRW = 1.565mm
!        W = 15mm
!        WLT = 2.5mm
!        WLT1 = 1.25mm
!        WLT2 = 1.25mm
!        WP1 = 11.9mm
!        WP2 = 11.9mm
!        WP3 = 11.9mm
!        WTR = 1.565mm
!        Wg = 11.9mm
!        devastado = -0.17mm
!        h = 0.508mm
!        oz = 0.035mm
!
# GHz S RI R 50.000000
! Terminal data exported
! Port[1] = 1
35                             0.594824221086536 -0.341547724695478 
! Gamma         0                0                
! Port Impedance         50               0                
35.01                          0.587908901777867 -0.35211335996795 
! Gamma         0                0                
! Port Impedance         50               0                
35.02                          0.580778833152815 -0.362519542401779 
! Gamma         0                0                
! Port Impedance         50               0                
35.03                          0.573437104347135 -0.372761100636656 
! Gamma         0                0                
! Port Impedance         50               0                
35.04                          0.565886945982328 -0.382832887518075 
! Gamma         0                0                
! Port Impedance         50               0                
35.05                          0.558131732878943 -0.392729784424311 
! Gamma         0                0                
! Port Impedance         50               0                
35.06                          0.550174986602715 -0.402446705891125 
! Gamma         0                0                
! Port Impedance         50               0                
35.07                          0.542020377817726 -0.411978604523741 
! Gamma         0                0                
! Port Impedance         50               0                
35.08                          0.533671728422038 -0.42132047618302 
! Gamma         0                0                
! Port Impedance         50               0                
35.09                          0.525133013442345 -0.430467365430814 
! Gamma         0                0                
! Port Impedance         50               0                
35.1                           0.516408362665901 -0.439414371217223 
! Gamma         0                0                
! Port Impedance         50               0                
35.11                          0.507502061989521 -0.448156652790787 
! Gamma         0                0                
! Port Impedance         50               0                
35.12                          0.498418554467441 -0.456689435810883 
! Gamma         0                0                
! Port Impedance         50               0                
35.13                          0.48916244104179 -0.465008018640182 
! Gamma         0                0                
! Port Impedance         50               0                
35.14                          0.47973848094162 -0.473107778793784 
! Gamma         0                0                
! Port Impedance         50               0                
35.15                          0.470151591738705 -0.480984179520662 
! Gamma         0                0                
! Port Impedance         50               0                
35.16                          0.460406849050611 -0.488632776492333 
! Gamma         0                0                
! Port Impedance         50               0                
35.17                          0.450509485883852 -0.496049224573218 
! Gamma         0                0                
! Port Impedance         50               0                
35.18                          0.440464891612478 -0.503229284646841 
! Gamma         0                0                
! Port Impedance         50               0                
35.19                          0.43027861058957 -0.510168830472151 
! Gamma         0                0                
! Port Impedance         50               0                
35.2                           0.419956340391621 -0.516863855544433 
! Gamma         0                0                
! Port Impedance         50               0                
35.21                          0.409503929697798 -0.523310479935877 
! Gamma         0                0                
! Port Impedance         50               0                
35.22                          0.398927375808404 -0.529504957091477 
! Gamma         0                0                
! Port Impedance         50               0                
35.23                          0.388232821808689 -0.535443680556977 
! Gamma         0                0                
! Port Impedance         50               0                
35.24                          0.377426553386127 -0.541123190616629 
! Gamma         0                0                
! Port Impedance         50               0                
35.25                          0.36651499531079 -0.546540180819881 
! Gamma         0                0                
! Port Impedance         50               0                
35.26                          0.355504707590225 -0.551691504377439 
! Gamma         0                0                
! Port Impedance         50               0                
35.27                          0.344402381311235 -0.556574180408825 
! Gamma         0                0                
! Port Impedance         50               0                
35.28                          0.333214834182342 -0.561185400025081 
! Gamma         0                0                
! Port Impedance         50               0                
35.29                          0.321949005791371 -0.5655225322321 
! Gamma         0                0                
! Port Impedance         50               0                
35.3                           0.310611952593507 -0.569583129641719 
! Gamma         0                0                
! Port Impedance         50               0                
35.31                          0.299210842645486 -0.573364933979564 
! Gamma         0                0                
! Port Impedance         50               0                
35.32                          0.287752950101914 -0.5768658813804 
! Gamma         0                0                
! Port Impedance         50               0                
35.33                          0.276245649489703 -0.580084107463491 
! Gamma         0                0                
! Port Impedance         50               0                
35.34                          0.264696409776644 -0.583017952182137 
! Gamma         0                0                
! Port Impedance         50               0                
35.35                          0.253112788249555 -0.585665964443274 
! Gamma         0                0                
! Port Impedance         50               0                
35.36                          0.241502424217209 -0.588026906494455 
! Gamma         0                0                
! Port Impedance         50               0                
35.37                          0.229873032552373 -0.590099758077059 
! Gamma         0                0                
! Port Impedance         50               0                
35.38                          0.218232397086638 -0.591883720345821 
! Gamma         0                0                
! Port Impedance         50               0                
35.39                          0.20658836387073 -0.593378219555975 
! Gamma         0                0                
! Port Impedance         50               0                
35.4                           0.194948834311943 -0.594582910520329 
! Gamma         0                0                
! Port Impedance         50               0                
35.41                          0.183321758199206 -0.595497679839459 
! Gamma         0                0                
! Port Impedance         50               0                
35.42                          0.171715126625149 -0.596122648908912 
! Gamma         0                0                
! Port Impedance         50               0                
35.43                          0.160136964813222 -0.596458176707848 
! Gamma         0                0                
! Port Impedance         50               0                
35.44                          0.148595324856647 -0.596504862373931 
! Gamma         0                0                
! Port Impedance         50               0                
35.45                          0.137098278374607 -0.596263547569468 
! Gamma         0                0                
! Port Impedance         50               0                
35.46                          0.125653909089986 -0.595735318643811 
! Gamma         0                0                
! Port Impedance         50               0                
35.47                          0.11427030533141 -0.594921508596936 
! Gamma         0                0                
! Port Impedance         50               0                
35.48                          0.102955552461327 -0.593823698848767 
! Gamma         0                0                
! Port Impedance         50               0                
35.49                          0.0917177252304825 -0.592443720818383 
! Gamma         0                0                
! Port Impedance         50               0                
35.5                           0.080564880058222 -0.590783657316632 
! Gamma         0                0                
! Port Impedance         50               0                
35.51                          0.0695050472368716 -0.588845843754927 
! Gamma         0                0                
! Port Impedance         50               0                
35.52                          0.0585462230575453 -0.586632869172111 
! Gamma         0                0                
! Port Impedance         50               0                
35.53                          0.0476963618538906 -0.584147577080293 
! Gamma         0                0                
! Port Impedance         50               0                
35.54                          0.036963367959661 -0.581393066129437 
! Gamma         0                0                
! Port Impedance         50               0                
35.55                          0.0263550875752846 -0.578372690589269 
! Gamma         0                0                
! Port Impedance         50               0                
35.56                          0.0158793005382855 -0.575090060645809 
! Gamma         0                0                
! Port Impedance         50               0                
35.57                          0.00554371199203695 -0.571549042508408 
! Gamma         0                0                
! Port Impedance         50               0                
35.58                          -0.00464405605272665 -0.567753758321825 
! Gamma         0                0                
! Port Impedance         50               0                
35.59                          -0.0146764732692333 -0.563708585876349 
! Gamma         0                0                
! Port Impedance         50               0                
35.6                           -0.0245461096842015 -0.559418158107521 
! Gamma         0                0                
! Port Impedance         50               0                
35.61                          -0.0342456444706414 -0.554887362375451 
! Gamma         0                0                
! Port Impedance         50               0                
35.62                          -0.0437678748683133 -0.550121339512285 
! Gamma         0                0                
! Port Impedance         50               0                
35.63                          -0.0531057252356812 -0.54512548262482 
! Gamma         0                0                
! Port Impedance         50               0                
35.64                          -0.0622522562361513 -0.539905435637862 
! Gamma         0                0                
! Port Impedance         50               0                
35.65                          -0.071200674160472 -0.534467091562439 
! Gamma         0                0                
! Port Impedance         50               0                
35.66                          -0.079944340385775 -0.528816590471711 
! Gamma         0                0                
! Port Impedance         50               0                
35.67                          -0.0884767809704246 -0.522960317166096 
! Gamma         0                0                
! Port Impedance         50               0                
35.68                          -0.096791696382218 -0.516904898507991 
! Gamma         0                0                
! Port Impedance         50               0                
35.69                          -0.104882971355764 -0.510657200405359 
! Gamma         0                0                
! Port Impedance         50               0                
35.7                           -0.112744684872909 -0.504224324422589 
! Gamma         0                0                
! Port Impedance         50               0                
35.71                          -0.120371120258063 -0.497613603996198 
! Gamma         0                0                
! Port Impedance         50               0                
35.72                          -0.12775677537808 -0.490832600232348 
! Gamma         0                0                
! Port Impedance         50               0                
35.73                          -0.13489637293403 -0.483889097262654 
! Gamma         0                0                
! Port Impedance         50               0                
35.74                          -0.14178487082968 -0.476791097134596 
! Gamma         0                0                
! Port Impedance         50               0                
35.75                          -0.148417472599047 -0.469546814212715 
! Gamma         0                0                
! Port Impedance         50               0                
35.76                          -0.154789637872675 -0.462164669066996 
! Gamma         0                0                
! Port Impedance         50               0                
35.77                          -0.160897092859587 -0.454653281825224 
! Gamma         0                0                
! Port Impedance         50               0                
35.78                          -0.166735840819071 -0.447021464966812 
! Gamma         0                0                
! Port Impedance         50               0                
35.79                          -0.17230217249366 -0.439278215536497 
! Gamma         0                0                
! Port Impedance         50               0                
35.8                           -0.177592676471803 -0.431432706757518 
! Gamma         0                0                
! Port Impedance         50               0                
35.81                          -0.182604249445971 -0.423494279025312 
! Gamma         0                0                
! Port Impedance         50               0                
35.82                          -0.187334106329025 -0.415472430264725 
! Gamma         0                0                
! Port Impedance         50               0                
35.83                          -0.191779790189086 -0.407376805635554 
! Gamma         0                0                
! Port Impedance         50               0                
35.84                          -0.195939181960366 -0.39921718657388 
! Gamma         0                0                
! Port Impedance         50               0                
35.85                          -0.199810509885015 -0.39100347915912 
! Gamma         0                0                
! Port Impedance         50               0                
35.86                          -0.203392358638549 -0.382745701799852 
! Gamma         0                0                
! Port Impedance         50               0                
35.87                          -0.206683678089286 -0.374453972234741 
! Gamma         0                0                
! Port Impedance         50               0                
35.88                          -0.209683791640215 -0.366138493848407 
! Gamma         0                0                
! Port Impedance         50               0                
35.89                          -0.212392404099982 -0.35780954130595 
! Gamma         0                0                
! Port Impedance         50               0                
35.9                           -0.214809609028184 -0.349477445514109 
! Gamma         0                0                
! Port Impedance         50               0                
35.91                          -0.216935895499041 -0.341152577921227 
! Gamma         0                0                
! Port Impedance         50               0                
35.92                          -0.21877215422669 -0.332845334172928 
! Gamma         0                0                
! Port Impedance         50               0                
35.93                          -0.220319682994911 -0.324566117145183 
! Gamma         0                0                
! Port Impedance         50               0                
35.94                          -0.221580191334063 -0.31632531938148 
! Gamma         0                0                
! Port Impedance         50               0                
35.95                          -0.222555804388411 -0.308133304965867 
! Gamma         0                0                
! Port Impedance         50               0                
35.96                          -0.2232490659179 -0.300000390868999 
! Gamma         0                0                
! Port Impedance         50               0                
35.97                          -0.223662940379762 -0.291936827809452 
! Gamma         0                0                
! Port Impedance         50               0                
35.98                          -0.223800814037188 -0.28395278067811 
! Gamma         0                0                
! Port Impedance         50               0                
35.99                          -0.223666495044677 -0.276058308578536 
! Gamma         0                0                
! Port Impedance         50               0                
36                             -0.223264212462538 -0.268263344541582 
! Gamma         0                0                
! Port Impedance         50               0                
36.01                          -0.222598614156474 -0.260577674977511 
! Gamma         0                0                
! Port Impedance         50               0                
36.02                          -0.221674763542086 -0.253010918933863 
! Gamma         0                0                
! Port Impedance         50               0                
36.03                          -0.220498135138679 -0.245572507231945 
! Gamma         0                0                
! Port Impedance         50               0                
36.04                          -0.219074608901689 -0.238271661559141 
! Gamma         0                0                
! Port Impedance         50               0                
36.05                          -0.217410463308582 -0.231117373598317 
! Gamma         0                0                
! Port Impedance         50               0                
36.06                          -0.215512367179033 -0.224118384279136 
! Gamma         0                0                
! Port Impedance         50               0                
36.07                          -0.213387370216599 -0.217283163239242 
! Gamma         0                0                
! Port Impedance         50               0                
36.08                          -0.211042892265909 -0.210619888585855 
! Gamma         0                0                
! Port Impedance         50               0                
36.09                          -0.208486711286565 -0.204136427050344 
! Gamma         0                0                
! Port Impedance         50               0                
36.1                           -0.205726950052425 -0.197840314629793 
! Gamma         0                0                
! Port Impedance         50               0                
36.11                          -0.202772061592641 -0.191738737810221 
! Gamma         0                0                
! Port Impedance         50               0                
36.12                          -0.199630813398769 -0.185838515466302 
! Gamma         0                0                
! Port Impedance         50               0                
36.13                          -0.196312270430236 -0.1801460815316 
! Gamma         0                0                
! Port Impedance         50               0                
36.14                          -0.192825776958592 -0.174667468532039 
! Gamma         0                0                
! Port Impedance         50               0                
36.15                          -0.189180937298947 -0.169408292073072 
! Gamma         0                0                
! Port Impedance         50               0                
36.16                          -0.185387595484954 -0.164373736368043 
! Gamma         0                0                
! Port Impedance         50               0                
36.17                          -0.18145581395142 -0.159568540891542 
! Gamma         0                0                
! Port Impedance         50               0                
36.18                          -0.177395851296153 -0.154996988237093 
! Gamma         0                0                
! Port Impedance         50               0                
36.19                          -0.173218139199664 -0.150662893253238 
! Gamma         0                0                
! Port Impedance         50               0                
36.2                           -0.168933258588135 -0.146569593526221 
! Gamma         0                0                
! Port Impedance         50               0                
36.21                          -0.164551915131199 -0.142719941270866 
! Gamma         0                0                
! Port Impedance         50               0                
36.22                          -0.160084914171688 -0.13911629668407 
! Gamma         0                0                
! Port Impedance         50               0                
36.23                          -0.15554313518946 -0.135760522807551 
! Gamma         0                0                
! Port Impedance         50               0                
36.24                          -0.150937505905721 -0.132653981938273 
! Gamma         0                0                
! Port Impedance         50               0                
36.25                          -0.146278976137682 -0.129797533616257 
! Gamma         0                0                
! Port Impedance         50               0                
36.26                          -0.141578491516174 -0.127191534210527 
! Gamma         0                0                
! Port Impedance         50               0                
36.27                          -0.136846967180631 -0.124835838114605 
! Gamma         0                0                
! Port Impedance         50               0                
36.28                          -0.1320952615669 -0.122729800553542 
! Gamma         0                0                
! Port Impedance         50               0                
36.29                          -0.127334150403409 -0.120872281994947 
! Gamma         0                0                
! Port Impedance         50               0                
36.3                           -0.122574301030451 -0.119261654146906 
! Gamma         0                0                
! Port Impedance         50               0                
36.31                          -0.117826247155701 -0.117895807516292 
! Gamma         0                0                
! Port Impedance         50               0                
36.32                          -0.113100364156508 -0.116772160491694 
! Gamma         0                0                
! Port Impedance         50               0                
36.33                          -0.108406845036152 -0.115887669906246 
! Gamma         0                0                
! Port Impedance         50               0                
36.34                          -0.103755677136991 -0.115238843027049 
! Gamma         0                0                
! Port Impedance         50               0                
36.35                          -0.0991566197085729 -0.114821750909698 
! Gamma         0                0                
! Port Impedance         50               0                
36.36                          -0.0946191824229613 -0.114632043048835 
! Gamma         0                0                
! Port Impedance         50               0                
36.37                          -0.0901526049233061 -0.114664963248582 
! Gamma         0                0                
! Port Impedance         50               0                
36.38                          -0.0857658374846419 -0.114915366630346 
! Gamma         0                0                
! Port Impedance         50               0                
36.39                          -0.0814675228585671 -0.115377737689779 
! Gamma         0                0                
! Port Impedance         50               0                
36.4                           -0.0772659793655016 -0.116046209309762 
! Gamma         0                0                
! Port Impedance         50               0                
36.41                          -0.073169185289994 -0.11691458263213 
! Gamma         0                0                
! Port Impedance         50               0                
36.42                          -0.0691847646260445 -0.117976347687471 
! Gamma         0                0                
! Port Impedance         50               0                
36.43                          -0.0653199742107647 -0.119224704679869 
! Gamma         0                0                
! Port Impedance         50               0                
36.44                          -0.0615816922758161 -0.120652585821687 
! Gamma         0                0                
! Port Impedance         50               0                
36.45                          -0.0579764084373507 -0.122252677612667 
! Gamma         0                0                
! Port Impedance         50               0                
36.46                          -0.054510215136396 -0.124017443457503 
! Gamma         0                0                
! Port Impedance         50               0                
36.47                          -0.0511888005330373 -0.125939146516776 
! Gamma         0                0                
! Port Impedance         50               0                
36.48                          -0.0480174428494314 -0.128009872687598 
! Gamma         0                0                
! Port Impedance         50               0                
36.49                          -0.0450010061485471 -0.130221553612478 
! Gamma         0                0                
! Port Impedance         50               0                
36.5                           -0.042143937527847 -0.132565989617783 
! Gamma         0                0                
! Port Impedance         50               0                
36.51                          -0.0394502656998356 -0.135034872486621 
! Gamma         0                0                
! Port Impedance         50               0                
36.52                          -0.0369236009245069 -0.137619807975016 
! Gamma         0                0                
! Port Impedance         50               0                
36.53                          -0.0345671362524452 -0.140312337984743 
! Gamma         0                0                
! Port Impedance         50               0                
36.54                          -0.0323836500314827 -0.143103962311243 
! Gamma         0                0                
! Port Impedance         50               0                
36.55                          -0.0303755096246399 -0.145986159890292 
! Gamma         0                0                
! Port Impedance         50               0                
36.56                          -0.0285446762824206 -0.148950409472871 
! Gamma         0                0                
! Port Impedance         50               0                
36.57                          -0.0268927111084887 -0.151988209663526 
! Gamma         0                0                